# Position data for H2

2 atoms
1 atom types

0 32.63116 xlo xhi
0 72.93444 ylo yhi
0 31.9771 zlo zhi

Masses

1 16.00

Atoms

     1 1 0     0.0 0.0 <RX>
     2 1 0     0.0 0.0 0.0
