LAMMPS Description 

4 atoms        
3 bonds        
2 angles       
1 dihedrals
0 impropers

2 atom types      
1 bond types      
1 angle types     
1 dihedral types  
0 improper types  

0.0 59.0 xlo xhi
0.0 59.0 ylo yhi
0.0 59.0 zlo zhi

Masses

   1	15.0347	# CH3
   2	14.0268	# CH2
   
Pair Coeffs

   1	0.194745 3.75
   2	0.091411 3.95  

Bond Coeffs

   1	248.40 1.54	# C-C

Angle Coeffs

   1    124.1995 114.0	# C-C-C
   
Dihedral Coeffs

   1	1.41102 0.27101 3.14501 0.0 # C-C-C-C

Atoms

  1 1 1 0.0  5.81607  1.86644 -0.35341
  2 1 2 0.0  6.36379  0.46305 -0.03498
  3 1 2 0.0  7.90685  0.45236 -0.02161
  4 1 1 0.0  8.45457 -0.95104  0.29680


Bonds

1 1 1 2
2 1 2 3
3 1 3 4


Angles

1 1 1 2 3
2 1 2 3 4


Dihedrals

1 1 1 2 3 4



