ITEM: TIMESTEP
0
ITEM: NUMBER OF ATOMS
4
ITEM: BOX BOUNDS pp pp pp
0 59
0 59
0 59
ITEM: ATOMS id element mol type q xu yu zu fx fy fz 
1 C 1 1 0 5.81607 1.86644 -0.35341 -7.05637 -2.51334 0.513284 
2 C 1 2 0 6.36379 0.46305 -0.03498 8.75331 17.1214 -3.77514 
3 C 1 2 0 7.90685 0.45236 -0.02161 -8.75261 -17.1238 3.7753 
4 C 1 1 0 8.45457 -0.95104 0.2968 7.05567 2.51573 -0.513451 
ITEM: TIMESTEP
40
ITEM: NUMBER OF ATOMS
4
ITEM: BOX BOUNDS pp pp pp
0 59
0 59
0 59
ITEM: ATOMS id element mol type q xu yu zu fx fy fz 
1 C 1 1 0 5.87094 1.78851 -0.459929 -16.0844 49.4473 -17.1152 
2 C 1 2 0 6.34132 0.54897 0.076393 0.489655 -67.0874 17.07 
3 C 1 2 0 7.84602 0.424007 0.150252 20.6006 46.7949 -2.67165 
4 C 1 1 0 8.47741 -0.926822 0.139071 -5.00582 -29.1548 2.71687 
ITEM: TIMESTEP
80
ITEM: NUMBER OF ATOMS
4
ITEM: BOX BOUNDS pp pp pp
0 59
0 59
0 59
ITEM: ATOMS id element mol type q xu yu zu fx fy fz 
1 C 1 1 0 5.80278 1.85609 -0.634488 16.9558 -67.2545 45.1988 
2 C 1 2 0 6.34402 0.488223 0.228371 -0.458791 84.8463 -47.6406 
3 C 1 2 0 7.91484 0.479495 0.305335 -15.2331 -46.7155 -6.56387 
4 C 1 1 0 8.47886 -0.989492 0.0271545 -1.26386 29.1237 9.00561 
ITEM: TIMESTEP
120
ITEM: NUMBER OF ATOMS
4
ITEM: BOX BOUNDS pp pp pp
0 59
0 59
0 59
ITEM: ATOMS id element mol type q xu yu zu fx fy fz 
1 C 1 1 0 5.8448 1.69258 -0.615566 3.9061 57.201 -42.9826 
2 C 1 2 0 6.37211 0.663093 0.189746 -4.10402 -83.3513 58.5591 
3 C 1 2 0 7.89017 0.432982 0.416019 6.59445 20.1533 -17.2668 
4 C 1 1 0 8.43364 -0.945733 -0.058996 -6.39653 5.99706 1.69032 
ITEM: TIMESTEP
160
ITEM: NUMBER OF ATOMS
4
ITEM: BOX BOUNDS pp pp pp
0 59
0 59
0 59
ITEM: ATOMS id element mol type q xu yu zu fx fy fz 
1 C 1 1 0 5.97468 1.69418 -0.723158 -12.6329 -41.3382 40.4568 
2 C 1 2 0 6.3257 0.529442 0.389127 16.6026 61.774 -58.2506 
3 C 1 2 0 7.86865 0.438168 0.384816 -21.7102 19.2529 33.7084 
4 C 1 1 0 8.36714 -0.827476 -0.108308 17.7405 -39.6886 -15.9145 
ITEM: TIMESTEP
200
ITEM: NUMBER OF ATOMS
4
ITEM: BOX BOUNDS pp pp pp
0 59
0 59
0 59
ITEM: ATOMS id element mol type q xu yu zu fx fy fz 
1 C 1 1 0 5.9835 1.55988 -0.727904 -1.94971 31.0064 -43.5719 
2 C 1 2 0 6.35721 0.688396 0.349489 -24.76 -26.4496 53.0912 
3 C 1 2 0 7.80898 0.467259 0.598254 45.532 -66.6516 -48.6844 
4 C 1 1 0 8.38458 -0.868622 -0.26571 -18.8223 62.0947 39.1651 
ITEM: TIMESTEP
240
ITEM: NUMBER OF ATOMS
4
ITEM: BOX BOUNDS pp pp pp
0 59
0 59
0 59
ITEM: ATOMS id element mol type q xu yu zu fx fy fz 
1 C 1 1 0 5.97069 1.53264 -0.896858 13.7559 -27.5015 48.3994 
2 C 1 2 0 6.33515 0.748304 0.514634 34.8089 5.21257 -51.0637 
3 C 1 2 0 7.89754 0.242908 0.630423 -64.5273 77.9578 62.3 
4 C 1 1 0 8.33535 -0.687963 -0.280843 15.9625 -55.6689 -59.6357 
ITEM: TIMESTEP
280
ITEM: NUMBER OF ATOMS
4
ITEM: BOX BOUNDS pp pp pp
0 59
0 59
0 59
ITEM: ATOMS id element mol type q xu yu zu fx fy fz 
1 C 1 1 0 6.11465 1.29547 -0.868275 0.943943 7.10491 -23.5685 
2 C 1 2 0 6.39836 0.935521 0.551339 -25.573 -0.482442 17.9751 
3 C 1 2 0 7.69569 0.245872 0.791897 55.9962 -40.8268 -43.9809 
4 C 1 1 0 8.32074 -0.628222 -0.494319 -31.3671 34.2043 49.5743 
ITEM: TIMESTEP
320
ITEM: NUMBER OF ATOMS
4
ITEM: BOX BOUNDS pp pp pp
0 59
0 59
0 59
ITEM: ATOMS id element mol type q xu yu zu fx fy fz 
1 C 1 1 0 6.25425 1.14376 -0.908787 -9.23437 9.01198 -13.4547 
2 C 1 2 0 6.44053 0.942132 0.574679 1.7967 1.43003 30.1128 
3 C 1 2 0 7.72714 0.176123 0.852283 -12.4774 0.639544 -35.1444 
4 C 1 1 0 8.11246 -0.41761 -0.531921 19.9151 -11.0815 18.4863 
ITEM: TIMESTEP
360
ITEM: NUMBER OF ATOMS
4
ITEM: BOX BOUNDS pp pp pp
0 59
0 59
0 59
ITEM: ATOMS id element mol type q xu yu zu fx fy fz 
1 C 1 1 0 6.27991 1.0643 -0.956922 -22.5698 21.0608 52.5437 
2 C 1 2 0 6.48235 1.01673 0.667887 21.2387 -21.5745 -80.4629 
3 C 1 2 0 7.70448 0.0926187 0.761752 -30.7634 34.0625 101.299 
4 C 1 1 0 8.06892 -0.32983 -0.486283 32.0946 -33.5487 -73.38 
ITEM: TIMESTEP
400
ITEM: NUMBER OF ATOMS
4
ITEM: BOX BOUNDS pp pp pp
0 59
0 59
0 59
ITEM: ATOMS id element mol type q xu yu zu fx fy fz 
1 C 1 1 0 6.1406 1.14425 -0.831812 -7.6797 -4.51214 -55.6462 
2 C 1 2 0 6.50966 1.04537 0.544859 -25.8924 36.2326 74.2883 
3 C 1 2 0 7.58904 0.126915 0.889928 67.2781 -61.7295 -122.016 
4 C 1 1 0 8.29045 -0.468507 -0.616195 -33.7061 30.009 103.374 
ITEM: TIMESTEP
440
ITEM: NUMBER OF ATOMS
4
ITEM: BOX BOUNDS pp pp pp
0 59
0 59
0 59
ITEM: ATOMS id element mol type q xu yu zu fx fy fz 
1 C 1 1 0 5.86239 1.28141 -0.872272 12.6664 -10.3219 20.2724 
2 C 1 2 0 6.59071 1.13946 0.53354 25.638 -19.5232 -22.9363 
3 C 1 2 0 7.6425 -0.101074 0.697679 -73.4826 33.5274 65.4196 
4 C 1 1 0 8.44317 -0.480739 -0.385814 35.1781 -3.6823 -62.7557 
ITEM: TIMESTEP
480
ITEM: NUMBER OF ATOMS
4
ITEM: BOX BOUNDS pp pp pp
0 59
0 59
0 59
ITEM: ATOMS id element mol type q xu yu zu fx fy fz 
1 C 1 1 0 5.69097 1.27941 -0.784163 30.0249 -5.00923 28.8747 
2 C 1 2 0 6.76937 1.23168 0.428964 -21.0011 -11.6947 -21.2092 
3 C 1 2 0 7.45694 -0.168896 0.678992 12.0999 13.0869 -24.5486 
4 C 1 1 0 8.62102 -0.501504 -0.358924 -21.1236 3.61708 16.8831 
ITEM: TIMESTEP
520
ITEM: NUMBER OF ATOMS
4
ITEM: BOX BOUNDS pp pp pp
0 59
0 59
0 59
ITEM: ATOMS id element mol type q xu yu zu fx fy fz 
1 C 1 1 0 5.68683 1.22804 -0.5215 -43.2801 42.7877 -20.1604 
2 C 1 2 0 6.90754 1.24771 0.253124 -10.7466 -7.72851 -1.30965 
3 C 1 2 0 7.18725 -0.173245 0.28986 98.891 -34.4383 7.28424 
4 C 1 1 0 8.74787 -0.461025 -0.0944896 -44.8644 -0.620836 14.1858 
ITEM: TIMESTEP
560
ITEM: NUMBER OF ATOMS
4
ITEM: BOX BOUNDS pp pp pp
0 59
0 59
0 59
ITEM: ATOMS id element mol type q xu yu zu fx fy fz 
1 C 1 1 0 5.40979 1.52131 -0.374017 17.0157 -37.0467 8.87441 
2 C 1 2 0 6.91427 1.11926 -0.0293352 19.6958 29.028 -1.32481 
3 C 1 2 0 7.44853 -0.355674 0.175024 -140.017 15.7471 -6.96955 
4 C 1 1 0 8.77486 -0.464266 0.128688 103.306 -7.72829 -0.580046 
ITEM: TIMESTEP
600
ITEM: NUMBER OF ATOMS
4
ITEM: BOX BOUNDS pp pp pp
0 59
0 59
0 59
ITEM: ATOMS id element mol type q xu yu zu fx fy fz 
1 C 1 1 0 5.32735 1.56961 -0.170121 21.9345 -14.1396 -3.57375 
2 C 1 2 0 6.85992 1.18046 -0.339811 -5.60803 -29.6778 11.4995 
3 C 1 2 0 7.27069 -0.364927 0.000911092 134.657 30.6714 25.8076 
4 C 1 1 0 9.07393 -0.561029 0.376895 -150.983 13.1461 -33.7334 
ITEM: TIMESTEP
640
ITEM: NUMBER OF ATOMS
4
ITEM: BOX BOUNDS pp pp pp
0 59
0 59
0 59
ITEM: ATOMS id element mol type q xu yu zu fx fy fz 
1 C 1 1 0 5.46744 1.38585 0.0349686 35.6626 5.43802 -23.5386 
2 C 1 2 0 6.95894 1.13487 -0.549339 -21.6968 27.0624 30.9242 
3 C 1 2 0 7.44136 -0.196128 -0.0669866 -103.534 -52.4928 -29.2471 
4 C 1 1 0 8.68223 -0.492222 0.430633 89.5681 19.9924 21.8615 
ITEM: TIMESTEP
680
ITEM: NUMBER OF ATOMS
4
ITEM: BOX BOUNDS pp pp pp
0 59
0 59
0 59
ITEM: ATOMS id element mol type q xu yu zu fx fy fz 
1 C 1 1 0 5.74123 1.34775 0.0781568 -92.3521 41.0379 37.0324 
2 C 1 2 0 6.92027 1.1231 -0.49275 45.8458 -49.505 -41.9977 
3 C 1 2 0 7.24128 -0.359905 -0.258273 67.568 41.2123 16.475 
4 C 1 1 0 8.63119 -0.290345 0.513112 -21.0617 -32.7453 -11.5097 
ITEM: TIMESTEP
720
ITEM: NUMBER OF ATOMS
4
ITEM: BOX BOUNDS pp pp pp
0 59
0 59
0 59
ITEM: ATOMS id element mol type q xu yu zu fx fy fz 
1 C 1 1 0 5.56343 1.58542 0.278373 89.7718 -54.4052 -53.8169 
2 C 1 2 0 6.89701 0.948888 -0.705088 -87.331 65.6401 33.1062 
3 C 1 2 0 7.50552 -0.403258 -0.401996 -13.5006 -7.14797 7.03022 
4 C 1 1 0 8.58417 -0.325033 0.645088 11.0599 -4.08702 13.6805 
ITEM: TIMESTEP
760
ITEM: NUMBER OF ATOMS
4
ITEM: BOX BOUNDS pp pp pp
0 59
0 59
0 59
ITEM: ATOMS id element mol type q xu yu zu fx fy fz 
1 C 1 1 0 5.80675 1.49222 0.266313 -33.2638 20.2638 41.7521 
2 C 1 2 0 6.57535 1.00887 -0.832343 83.0115 -47.1878 3.98418 
3 C 1 2 0 7.54655 -0.279362 -0.429853 -14.0995 -12.7076 -23.0427 
4 C 1 1 0 8.60266 -0.403382 0.801861 -35.6482 39.6316 -22.6936 
ITEM: TIMESTEP
800
ITEM: NUMBER OF ATOMS
4
ITEM: BOX BOUNDS pp pp pp
0 59
0 59
0 59
ITEM: ATOMS id element mol type q xu yu zu fx fy fz 
1 C 1 1 0 5.93114 1.44451 0.421626 6.59004 -15.5103 3.31073 
2 C 1 2 0 6.73148 0.881155 -0.784135 -13.215 14.1814 -42.8819 
3 C 1 2 0 7.5942 -0.362925 -0.60044 -7.39495 23.2675 44.2441 
4 C 1 1 0 8.28814 -0.158557 0.760723 14.0199 -21.9386 -4.67292 
ITEM: TIMESTEP
840
ITEM: NUMBER OF ATOMS
4
ITEM: BOX BOUNDS pp pp pp
0 59
0 59
0 59
ITEM: ATOMS id element mol type q xu yu zu fx fy fz 
1 C 1 1 0 6.09625 1.30465 0.51051 5.35177 6.91522 -55.8359 
2 C 1 2 0 6.78094 0.858496 -0.909202 -47.4221 31.6087 56.0597 
3 C 1 2 0 7.54585 -0.29937 -0.555045 11.8247 -30.2158 -41.5233 
4 C 1 1 0 8.122 -0.056851 0.74617 30.2457 -8.30808 41.2996 
ITEM: TIMESTEP
880
ITEM: NUMBER OF ATOMS
4
ITEM: BOX BOUNDS pp pp pp
0 59
0 59
0 59
ITEM: ATOMS id element mol type q xu yu zu fx fy fz 
1 C 1 1 0 6.17792 1.30106 0.38092 -45.2198 43.779 67.5392 
2 C 1 2 0 6.55163 0.917214 -0.874847 60.821 -65.8572 -48.7897 
3 C 1 2 0 7.6067 -0.25872 -0.626632 -5.00121 34.1641 35.2966 
4 C 1 1 0 8.19749 -0.145967 0.910496 -10.6001 -12.0858 -54.046 
ITEM: TIMESTEP
920
ITEM: NUMBER OF ATOMS
4
ITEM: BOX BOUNDS pp pp pp
0 59
0 59
0 59
ITEM: ATOMS id element mol type q xu yu zu fx fy fz 
1 C 1 1 0 5.94843 1.57238 0.470481 41.1482 -46.7291 -51.1037 
2 C 1 2 0 6.62783 0.732189 -0.840686 -59.6789 60.4209 29.9336 
3 C 1 2 0 7.74547 -0.22422 -0.617286 8.48367 -13.4334 -7.42561 
4 C 1 1 0 8.22644 -0.276856 0.780346 10.047 -0.25839 28.5958 
ITEM: TIMESTEP
960
ITEM: NUMBER OF ATOMS
4
ITEM: BOX BOUNDS pp pp pp
0 59
0 59
0 59
ITEM: ATOMS id element mol type q xu yu zu fx fy fz 
1 C 1 1 0 5.98041 1.62604 0.350892 6.70563 4.087 6.99851 
2 C 1 2 0 6.42504 0.706144 -0.785944 9.29702 -21.779 12.4302 
3 C 1 2 0 7.79397 -0.0772267 -0.582674 5.47863 10.0371 -26.8145 
4 C 1 1 0 8.3384 -0.443354 0.81657 -21.4813 7.65491 7.38586 
ITEM: TIMESTEP
1000
ITEM: NUMBER OF ATOMS
4
ITEM: BOX BOUNDS pp pp pp
0 59
0 59
0 59
ITEM: ATOMS id element mol type q xu yu zu fx fy fz 
1 C 1 1 0 6.06447 1.62882 0.284073 -19.2571 27.2728 21.6402 
2 C 1 2 0 6.32905 0.570263 -0.69241 59.355 -27.688 -16.9866 
3 C 1 2 0 7.88604 0.135775 -0.615013 -36.1098 -16.2913 34.8254 
4 C 1 1 0 8.258 -0.518081 0.826297 -3.9881 16.7066 -39.479 
ITEM: TIMESTEP
1040
ITEM: NUMBER OF ATOMS
4
ITEM: BOX BOUNDS pp pp pp
0 59
0 59
0 59
ITEM: ATOMS id element mol type q xu yu zu fx fy fz 
1 C 1 1 0 6.02111 1.74895 0.219951 10.3834 -49.0704 -22.7769 
2 C 1 2 0 6.50324 0.348257 -0.507103 -81.6819 82.4352 -5.99818 
3 C 1 2 0 7.89031 0.229709 -0.532118 22.9988 -2.95543 -18.2258 
4 C 1 1 0 8.13485 -0.518724 0.640196 48.2997 -30.4094 47.0009 
ITEM: TIMESTEP
1080
ITEM: NUMBER OF ATOMS
4
ITEM: BOX BOUNDS pp pp pp
0 59
0 59
0 59
ITEM: ATOMS id element mol type q xu yu zu fx fy fz 
1 C 1 1 0 5.96354 1.73295 0.138149 -21.2861 52.1672 35.0621 
2 C 1 2 0 6.29273 0.57476 -0.589824 54.4753 -64.2481 -14.3192 
3 C 1 2 0 7.86001 0.208876 -0.477769 -2.74574 -11.6747 1.68337 
4 C 1 1 0 8.4171 -0.694611 0.748468 -30.4434 23.7556 -22.4263 
ITEM: TIMESTEP
1120
ITEM: NUMBER OF ATOMS
4
ITEM: BOX BOUNDS pp pp pp
0 59
0 59
0 59
ITEM: ATOMS id element mol type q xu yu zu fx fy fz 
1 C 1 1 0 5.80244 1.88462 0.199945 39.6149 -45.5645 -19.3082 
2 C 1 2 0 6.37049 0.56073 -0.624311 -4.48985 8.61977 27.325 
3 C 1 2 0 7.91828 0.0591495 -0.509156 -12.2879 29.0898 -10.522 
4 C 1 1 0 8.45129 -0.693502 0.74813 -22.8371 7.85495 2.50527 
ITEM: TIMESTEP
1160
ITEM: NUMBER OF ATOMS
4
ITEM: BOX BOUNDS pp pp pp
0 59
0 59
0 59
ITEM: ATOMS id element mol type q xu yu zu fx fy fz 
1 C 1 1 0 5.96419 1.76724 0.171598 12.899 -5.7524 1.18177 
2 C 1 2 0 6.44337 0.451095 -0.507809 -50.0466 11.9307 -21.5237 
3 C 1 2 0 7.88311 0.181294 -0.545154 17.5447 -0.83626 12.0157 
4 C 1 1 0 8.25435 -0.587795 0.70137 19.603 -5.34208 8.32624 
ITEM: TIMESTEP
1200
ITEM: NUMBER OF ATOMS
4
ITEM: BOX BOUNDS pp pp pp
0 59
0 59
0 59
ITEM: ATOMS id element mol type q xu yu zu fx fy fz 
1 C 1 1 0 6.17236 1.62765 0.164671 -62.0124 40.4787 22.025 
2 C 1 2 0 6.28638 0.411877 -0.594386 69.8246 11.0669 0.181153 
3 C 1 2 0 7.83332 0.331021 -0.474062 -16.826 -55.584 -21.3178 
4 C 1 1 0 8.2391 -0.551301 0.722745 9.01377 4.03843 -0.888366 
ITEM: TIMESTEP
1240
ITEM: NUMBER OF ATOMS
4
ITEM: BOX BOUNDS pp pp pp
0 59
0 59
0 59
ITEM: ATOMS id element mol type q xu yu zu fx fy fz 
1 C 1 1 0 5.90431 1.7494 0.304999 37.8227 -34.9797 -20.1562 
2 C 1 2 0 6.45859 0.550122 -0.668731 -54.5835 21.3618 5.82439 
3 C 1 2 0 7.87782 0.0213475 -0.591246 17.7515 17.5716 1.98083 
4 C 1 1 0 8.30497 -0.513115 0.761105 -0.990674 -3.9537 12.351 
ITEM: TIMESTEP
1280
ITEM: NUMBER OF ATOMS
4
ITEM: BOX BOUNDS pp pp pp
0 59
0 59
0 59
ITEM: ATOMS id element mol type q xu yu zu fx fy fz 
1 C 1 1 0 5.88141 1.66418 0.357843 27.7098 -14.2853 4.35861 
2 C 1 2 0 6.45807 0.751452 -0.783137 11.6527 -25.0439 -12.5475 
3 C 1 2 0 7.82222 -0.160215 -0.630161 -17.7462 29.5206 35.225 
4 C 1 1 0 8.38023 -0.446338 0.851304 -21.6163 9.80859 -27.0361 
ITEM: TIMESTEP
1320
ITEM: NUMBER OF ATOMS
4
ITEM: BOX BOUNDS pp pp pp
0 59
0 59
0 59
ITEM: ATOMS id element mol type q xu yu zu fx fy fz 
1 C 1 1 0 6.1365 1.41524 0.395852 -29.5693 32.7447 29.5001 
2 C 1 2 0 6.4778 0.803414 -0.869239 34.0627 -26.5148 13.8821 
3 C 1 2 0 7.68801 -0.128068 -0.569252 5.29747 -17.7319 -61.8537 
4 C 1 1 0 8.23195 -0.275867 0.836798 -9.79087 11.502 18.4715 
ITEM: TIMESTEP
1360
ITEM: NUMBER OF ATOMS
4
ITEM: BOX BOUNDS pp pp pp
0 59
0 59
0 59
ITEM: ATOMS id element mol type q xu yu zu fx fy fz 
1 C 1 1 0 6.21663 1.36362 0.612789 14.1411 -25.2637 -66.6233 
2 C 1 2 0 6.65882 0.70792 -0.875846 -55.3196 48.8072 16.212 
3 C 1 2 0 7.71988 -0.251687 -0.736867 5.36116 11.2942 57.9515 
4 C 1 1 0 7.9532 -0.019827 0.782404 35.8173 -34.8377 -7.54011 
ITEM: TIMESTEP
1400
ITEM: NUMBER OF ATOMS
4
ITEM: BOX BOUNDS pp pp pp
0 59
0 59
0 59
ITEM: ATOMS id element mol type q xu yu zu fx fy fz 
1 C 1 1 0 6.29022 1.24548 0.446753 -41.0103 43.9269 54.2584 
2 C 1 2 0 6.56559 0.821963 -0.853628 25.1236 -32.568 -47.3394 
3 C 1 2 0 7.64611 -0.199452 -0.630282 -5.06126 4.6634 -15.1143 
4 C 1 1 0 8.03541 -0.0568159 0.828273 20.9479 -16.0223 8.19538 
ITEM: TIMESTEP
1440
ITEM: NUMBER OF ATOMS
4
ITEM: BOX BOUNDS pp pp pp
0 59
0 59
0 59
ITEM: ATOMS id element mol type q xu yu zu fx fy fz 
1 C 1 1 0 6.02797 1.441 0.447235 -3.47348 -2.63268 -42.1322 
2 C 1 2 0 6.5502 0.834252 -0.953504 19.7761 -2.31969 83.3964 
3 C 1 2 0 7.67558 -0.224192 -0.580212 -1.39316 -8.91781 -27.7968 
4 C 1 1 0 8.28453 -0.240722 0.874257 -14.9095 13.8702 -13.4674 
ITEM: TIMESTEP
1480
ITEM: NUMBER OF ATOMS
4
ITEM: BOX BOUNDS pp pp pp
0 59
0 59
0 59
ITEM: ATOMS id element mol type q xu yu zu fx fy fz 
1 C 1 1 0 5.68936 1.65271 0.311938 45.5615 -63.3602 17.7004 
2 C 1 2 0 6.70393 0.830603 -0.678889 -34.3983 79.2347 -84.0801 
3 C 1 2 0 7.69664 -0.317409 -0.573885 -16.7569 -17.8365 61.8938 
4 C 1 1 0 8.46006 -0.362061 0.747446 5.59379 1.96205 4.48596 
ITEM: TIMESTEP
1520
ITEM: NUMBER OF ATOMS
4
ITEM: BOX BOUNDS pp pp pp
0 59
0 59
0 59
ITEM: ATOMS id element mol type q xu yu zu fx fy fz 
1 C 1 1 0 5.70261 1.41331 0.215734 -14.9633 40.7934 -9.66722 
2 C 1 2 0 6.79452 1.19341 -0.818146 28.0893 -124.49 73.8849 
3 C 1 2 0 7.35706 -0.363343 -0.28511 32.2718 70.7639 -32.5937 
4 C 1 1 0 8.6791 -0.418294 0.704156 -45.3977 12.9331 -31.6239 
ITEM: TIMESTEP
1560
ITEM: NUMBER OF ATOMS
4
ITEM: BOX BOUNDS pp pp pp
0 59
0 59
0 59
ITEM: ATOMS id element mol type q xu yu zu fx fy fz 
1 C 1 1 0 5.64037 1.40087 0.0276347 -0.850262 7.67599 -5.6937 
2 C 1 2 0 7.03072 0.984223 -0.481237 -41.0807 95.9372 -24.2544 
3 C 1 2 0 7.30893 -0.243155 -0.117823 -35.3323 -88.9141 -2.07808 
4 C 1 1 0 8.56588 -0.32282 0.421859 77.2633 -14.6991 32.0262 
ITEM: TIMESTEP
1600
ITEM: NUMBER OF ATOMS
4
ITEM: BOX BOUNDS pp pp pp
0 59
0 59
0 59
ITEM: ATOMS id element mol type q xu yu zu fx fy fz 
1 C 1 1 0 5.47004 1.57585 -0.214186 -22.5284 -12.7169 0.119538 
2 C 1 2 0 6.90127 1.11159 -0.194762 18.2212 -32.4037 0.328055 
3 C 1 2 0 7.25745 -0.462166 0.00692881 67.6161 78.3012 9.05275 
4 C 1 1 0 8.90501 -0.412292 0.280021 -63.3089 -33.1806 -9.50034 
ITEM: TIMESTEP
1640
ITEM: NUMBER OF ATOMS
4
ITEM: BOX BOUNDS pp pp pp
0 59
0 59
0 59
ITEM: ATOMS id element mol type q xu yu zu fx fy fz 
1 C 1 1 0 5.24503 1.53467 -0.464626 82.5425 -21.3147 31.7807 
2 C 1 2 0 6.84994 1.30791 0.117175 -10.2139 -49.9291 -27.0588 
3 C 1 2 0 7.48268 -0.298759 0.11596 -81.7085 36.3558 -8.93807 
4 C 1 1 0 8.96779 -0.706729 0.137714 9.37985 34.8879 4.21616 
ITEM: TIMESTEP
1680
ITEM: NUMBER OF ATOMS
4
ITEM: BOX BOUNDS pp pp pp
0 59
0 59
0 59
ITEM: ATOMS id element mol type q xu yu zu fx fy fz 
1 C 1 1 0 5.59934 1.29643 -0.461473 -60.9435 20.6814 -23.7069 
2 C 1 2 0 6.85739 1.24124 0.167047 57.0357 63.5408 9.22732 
3 C 1 2 0 7.25934 -0.0734256 0.194934 48.3551 -132.764 7.54006 
4 C 1 1 0 8.8149 -0.616514 0.0143529 -44.4473 48.5416 6.93955 
ITEM: TIMESTEP
1720
ITEM: NUMBER OF ATOMS
4
ITEM: BOX BOUNDS pp pp pp
0 59
0 59
0 59
ITEM: ATOMS id element mol type q xu yu zu fx fy fz 
1 C 1 1 0 5.6716 1.32324 -0.536366 19.3025 25.8641 9.55191 
2 C 1 2 0 7.08513 1.17516 0.149892 -110.116 -66.8899 7.58962 
3 C 1 2 0 7.23588 -0.409081 0.389318 13.3035 116.807 -8.4101 
4 C 1 1 0 8.55205 -0.268514 -0.0761017 77.5099 -75.7813 -8.73143 
ITEM: TIMESTEP
1760
ITEM: NUMBER OF ATOMS
4
ITEM: BOX BOUNDS pp pp pp
0 59
0 59
0 59
ITEM: ATOMS id element mol type q xu yu zu fx fy fz 
1 C 1 1 0 5.63424 1.49138 -0.654305 -13.0738 -33.6795 -34.9048 
2 C 1 2 0 6.68935 1.07068 0.317431 39.5466 75.3145 57.1194 
3 C 1 2 0 7.37583 -0.249264 0.462051 4.55808 -62.2271 -27.2363 
4 C 1 1 0 8.82808 -0.48829 -0.182329 -31.0308 20.5921 5.02165 
ITEM: TIMESTEP
1800
ITEM: NUMBER OF ATOMS
4
ITEM: BOX BOUNDS pp pp pp
0 59
0 59
0 59
ITEM: ATOMS id element mol type q xu yu zu fx fy fz 
1 C 1 1 0 5.61361 1.44541 -0.772737 33.8625 3.19036 49.9408 
2 C 1 2 0 6.59973 1.22531 0.543591 22.202 -45.5744 -83.414 
3 C 1 2 0 7.3918 -0.243246 0.415735 8.78744 -11.3593 15.569 
4 C 1 1 0 8.91743 -0.592196 -0.231685 -64.852 53.7433 17.9042 
ITEM: TIMESTEP
1840
ITEM: NUMBER OF ATOMS
4
ITEM: BOX BOUNDS pp pp pp
0 59
0 59
0 59
ITEM: ATOMS id element mol type q xu yu zu fx fy fz 
1 C 1 1 0 5.76302 1.36308 -0.643654 -20.6119 -7.1635 -19.0414 
2 C 1 2 0 6.90122 1.08795 0.273303 -15.1444 6.89234 50.4883 
3 C 1 2 0 7.32562 -0.366122 0.483446 -38.8873 48.1409 -6.24321 
4 C 1 1 0 8.54848 -0.267069 -0.171769 74.6435 -47.8697 -25.2037 
ITEM: TIMESTEP
1880
ITEM: NUMBER OF ATOMS
4
ITEM: BOX BOUNDS pp pp pp
0 59
0 59
0 59
ITEM: ATOMS id element mol type q xu yu zu fx fy fz 
1 C 1 1 0 5.831 1.26068 -0.650873 -23.6687 21.424 -22.7994 
2 C 1 2 0 6.84291 1.12311 0.406707 -25.3142 41.6159 14.6704 
3 C 1 2 0 7.23106 -0.210928 0.453593 63.2223 -48.2545 0.0263776 
4 C 1 1 0 8.62313 -0.342269 -0.261161 -14.2394 -14.7855 8.10265 
ITEM: TIMESTEP
1920
ITEM: NUMBER OF ATOMS
4
ITEM: BOX BOUNDS pp pp pp
0 59
0 59
0 59
ITEM: ATOMS id element mol type q xu yu zu fx fy fz 
1 C 1 1 0 5.76814 1.38643 -0.833885 14.3359 4.09917 40.2176 
2 C 1 2 0 6.51295 1.21166 0.598348 57.5159 -72.8909 -76.6017 
3 C 1 2 0 7.50504 -0.213864 0.585152 -44.0041 29.0247 35.4579 
4 C 1 1 0 8.73821 -0.547897 -0.379682 -27.8477 39.767 0.92624 
ITEM: TIMESTEP
1960
ITEM: NUMBER OF ATOMS
4
ITEM: BOX BOUNDS pp pp pp
0 59
0 59
0 59
ITEM: ATOMS id element mol type q xu yu zu fx fy fz 
1 C 1 1 0 5.80785 1.43326 -0.826119 19.5024 -49.3933 -22.2702 
2 C 1 2 0 6.63072 0.999709 0.417144 -7.7078 61.4064 86.7847 
3 C 1 2 0 7.56969 -0.206277 0.742345 -38.3601 0.441702 -48.6069 
4 C 1 1 0 8.52831 -0.404054 -0.365046 26.5655 -12.4548 -15.9076 
ITEM: TIMESTEP
2000
ITEM: NUMBER OF ATOMS
4
ITEM: BOX BOUNDS pp pp pp
0 59
0 59
0 59
ITEM: ATOMS id element mol type q xu yu zu fx fy fz 
1 C 1 1 0 6.05148 1.12889 -0.806421 -9.07717 45.616 23.0592 
2 C 1 2 0 6.68049 1.18915 0.640368 -21.5033 -34.4721 -66.1646 
3 C 1 2 0 7.28429 -0.179328 0.618133 68.8911 -10.163 7.95586 
4 C 1 1 0 8.50451 -0.301564 -0.477118 -38.3106 -0.980954 35.1495 
ITEM: TIMESTEP
2040
ITEM: NUMBER OF ATOMS
4
ITEM: BOX BOUNDS pp pp pp
0 59
0 59
0 59
ITEM: ATOMS id element mol type q xu yu zu fx fy fz 
1 C 1 1 0 6.12279 1.19202 -0.801574 -26.0758 15.5111 -42.0189 
2 C 1 2 0 6.62856 1.08299 0.542556 9.46605 -7.20457 38.256 
3 C 1 2 0 7.44394 -0.179374 0.659309 -31.3919 6.6945 48.2943 
4 C 1 1 0 8.33271 -0.265618 -0.429126 48.0017 -15.001 -44.5314 
ITEM: TIMESTEP
2080
ITEM: NUMBER OF ATOMS
4
ITEM: BOX BOUNDS pp pp pp
0 59
0 59
0 59
ITEM: ATOMS id element mol type q xu yu zu fx fy fz 
1 C 1 1 0 6.04815 1.37783 -0.952296 27.8027 -29.3667 53.0569 
2 C 1 2 0 6.48618 0.963597 0.603956 -14.8838 13.5702 -10.5534 
3 C 1 2 0 7.61833 -0.125519 0.879532 -4.13601 19.5315 -91.2556 
4 C 1 1 0 8.37749 -0.390278 -0.541148 -8.78295 -3.73492 48.7521 
ITEM: TIMESTEP
2120
ITEM: NUMBER OF ATOMS
4
ITEM: BOX BOUNDS pp pp pp
0 59
0 59
0 59
ITEM: ATOMS id element mol type q xu yu zu fx fy fz 
1 C 1 1 0 6.14246 1.36749 -0.772552 -16.8068 23.8572 -42.0563 
2 C 1 2 0 6.33996 0.913682 0.580506 5.28045 -18.7672 -15.1612 
3 C 1 2 0 7.60029 0.0867789 0.655894 42.3243 -20.6477 82.9393 
4 C 1 1 0 8.43642 -0.531436 -0.490369 -30.7979 15.5578 -25.7217 
ITEM: TIMESTEP
2160
ITEM: NUMBER OF ATOMS
4
ITEM: BOX BOUNDS pp pp pp
0 59
0 59
0 59
ITEM: ATOMS id element mol type q xu yu zu fx fy fz 
1 C 1 1 0 6.1463 1.51284 -0.866815 1.71803 -23.8083 39.0729 
2 C 1 2 0 6.29474 0.633119 0.499751 46.6854 25.8094 -0.118525 
3 C 1 2 0 7.85188 0.20922 0.827187 -79.8705 2.1895 -57.2692 
4 C 1 1 0 8.24004 -0.529264 -0.480574 31.4671 -4.19058 18.3148 
ITEM: TIMESTEP
2200
ITEM: NUMBER OF ATOMS
4
ITEM: BOX BOUNDS pp pp pp
0 59
0 59
0 59
ITEM: ATOMS id element mol type q xu yu zu fx fy fz 
1 C 1 1 0 6.16548 1.49279 -0.727417 -1.41699 24.3366 -34.8888 
2 C 1 2 0 6.39026 0.630721 0.422963 -79.7814 -4.03602 27.5496 
3 C 1 2 0 7.69623 0.289544 0.666474 69.1293 -7.45464 22.6237 
4 C 1 1 0 8.27696 -0.581918 -0.398392 12.0691 -12.846 -15.2845 
ITEM: TIMESTEP
2240
ITEM: NUMBER OF ATOMS
4
ITEM: BOX BOUNDS pp pp pp
0 59
0 59
0 59
ITEM: ATOMS id element mol type q xu yu zu fx fy fz 
1 C 1 1 0 6.10712 1.60869 -0.778448 -27.197 -17.6745 28.1076 
2 C 1 2 0 6.16826 0.661277 0.515068 98.4919 11.5106 -54.1772 
3 C 1 2 0 7.79904 0.289825 0.650173 -46.8616 -16.1026 9.30735 
4 C 1 1 0 8.44653 -0.726592 -0.418083 -24.4333 22.2666 16.7622 
ITEM: TIMESTEP
2280
ITEM: NUMBER OF ATOMS
4
ITEM: BOX BOUNDS pp pp pp
0 59
0 59
0 59
ITEM: ATOMS id element mol type q xu yu zu fx fy fz 
1 C 1 1 0 5.92164 1.6624 -0.747547 51.0373 13.4136 -27.2299 
2 C 1 2 0 6.41981 0.701112 0.316713 -80.1709 -41.0982 70.1342 
3 C 1 2 0 7.79439 0.159359 0.711512 13.1772 47.0146 -20.0439 
4 C 1 1 0 8.40165 -0.695748 -0.321154 15.9564 -19.3301 -22.8604 
ITEM: TIMESTEP
2320
ITEM: NUMBER OF ATOMS
4
ITEM: BOX BOUNDS pp pp pp
0 59
0 59
0 59
ITEM: ATOMS id element mol type q xu yu zu fx fy fz 
1 C 1 1 0 6.10539 1.67677 -0.747902 -26.9209 -42.7742 42.0433 
2 C 1 2 0 6.21363 0.542986 0.455399 51.2769 64.0701 -63.3559 
3 C 1 2 0 7.77578 0.376372 0.619094 -5.14977 -58.2619 -7.13657 
4 C 1 1 0 8.42763 -0.765057 -0.363965 -19.2062 36.9659 28.4492 
ITEM: TIMESTEP
2360
ITEM: NUMBER OF ATOMS
4
ITEM: BOX BOUNDS pp pp pp
0 59
0 59
0 59
ITEM: ATOMS id element mol type q xu yu zu fx fy fz 
1 C 1 1 0 6.12161 1.55129 -0.646052 -12.7306 59.2086 -68.4874 
2 C 1 2 0 6.31989 0.64181 0.340087 -13.6123 -58.171 56.4792 
3 C 1 2 0 7.74441 0.290821 0.569196 10.4854 36.7371 55.6577 
4 C 1 1 0 8.34154 -0.651954 -0.311681 15.8575 -37.7747 -43.6495 
ITEM: TIMESTEP
2400
ITEM: NUMBER OF ATOMS
4
ITEM: BOX BOUNDS pp pp pp
0 59
0 59
0 59
ITEM: ATOMS id element mol type q xu yu zu fx fy fz 
1 C 1 1 0 6.02077 1.67185 -0.850449 25.5925 -60.0976 69.1921 
2 C 1 2 0 6.32341 0.575995 0.454368 -1.11269 64.0681 -29.9683 
3 C 1 2 0 7.85127 0.249606 0.813187 -37.3309 -28.6803 -85.4564 
4 C 1 1 0 8.3394 -0.67266 -0.441538 12.8511 24.7098 46.2326 
ITEM: TIMESTEP
2440
ITEM: NUMBER OF ATOMS
4
ITEM: BOX BOUNDS pp pp pp
0 59
0 59
0 59
ITEM: ATOMS id element mol type q xu yu zu fx fy fz 
1 C 1 1 0 6.10967 1.47671 -0.730346 -11.8178 33.567 -53.2701 
2 C 1 2 0 6.30339 0.827063 0.5078 -11.9515 -41.3017 -2.7302 
3 C 1 2 0 7.63968 0.157511 0.598848 58.1287 8.35114 96.6821 
4 C 1 1 0 8.46658 -0.625841 -0.41152 -34.3594 -0.616379 -40.6818 
ITEM: TIMESTEP
2480
ITEM: NUMBER OF ATOMS
4
ITEM: BOX BOUNDS pp pp pp
0 59
0 59
0 59
ITEM: ATOMS id element mol type q xu yu zu fx fy fz 
1 C 1 1 0 6.15862 1.47721 -0.910868 6.91349 -15.619 35.5921 
2 C 1 2 0 6.27975 0.753475 0.532241 55.2946 -7.41631 7.47231 
3 C 1 2 0 7.79832 0.106016 0.887497 -72.9487 19.396 -88.6289 
4 C 1 1 0 8.29168 -0.509636 -0.5231 10.7406 3.63939 45.5644 
ITEM: TIMESTEP
2520
ITEM: NUMBER OF ATOMS
4
ITEM: BOX BOUNDS pp pp pp
0 59
0 59
0 59
ITEM: ATOMS id element mol type q xu yu zu fx fy fz 
1 C 1 1 0 6.27384 1.3676 -0.824975 0.734663 8.44456 -10.6675 
2 C 1 2 0 6.43671 0.685322 0.516131 -95.571 30.8887 5.21747 
3 C 1 2 0 7.65019 0.174205 0.731883 64.4706 -7.86143 53.1808 
4 C 1 1 0 8.16823 -0.40006 -0.448781 30.3657 -31.4719 -47.7308 
ITEM: TIMESTEP
2560
ITEM: NUMBER OF ATOMS
4
ITEM: BOX BOUNDS pp pp pp
0 59
0 59
0 59
ITEM: ATOMS id element mol type q xu yu zu fx fy fz 
1 C 1 1 0 6.34079 1.34333 -0.818366 -47.3413 16.1879 3.95176 
2 C 1 2 0 6.15183 0.785498 0.612398 118.233 -23.3668 -36.3811 
3 C 1 2 0 7.714 0.219363 0.79195 -47.7185 -20.4281 -28.0277 
4 C 1 1 0 8.30753 -0.511387 -0.601244 -23.1729 27.607 60.457 
ITEM: TIMESTEP
2600
ITEM: NUMBER OF ATOMS
4
ITEM: BOX BOUNDS pp pp pp
0 59
0 59
0 59
ITEM: ATOMS id element mol type q xu yu zu fx fy fz 
1 C 1 1 0 6.06925 1.48409 -0.855237 40.7961 -7.66533 -20.903 
2 C 1 2 0 6.47652 0.773217 0.44095 -96.4851 18.7535 63.3805 
3 C 1 2 0 7.68667 0.0360144 0.770421 21.307 20.0392 8.49104 
4 C 1 1 0 8.30163 -0.469625 -0.384332 34.3821 -31.1273 -50.9685 
ITEM: TIMESTEP
2640
ITEM: NUMBER OF ATOMS
4
ITEM: BOX BOUNDS pp pp pp
0 59
0 59
0 59
ITEM: ATOMS id element mol type q xu yu zu fx fy fz 
1 C 1 1 0 6.0664 1.53996 -0.920607 7.46396 -26.5907 66.3962 
2 C 1 2 0 6.25361 0.839413 0.599897 37.5235 -3.79874 -82.2191 
3 C 1 2 0 7.70194 0.0858663 0.793418 2.8001 -0.412805 -22.7671 
4 C 1 1 0 8.49821 -0.633768 -0.48871 -47.7876 30.8022 38.5899 
ITEM: TIMESTEP
2680
ITEM: NUMBER OF ATOMS
4
ITEM: BOX BOUNDS pp pp pp
0 59
0 59
0 59
ITEM: ATOMS id element mol type q xu yu zu fx fy fz 
1 C 1 1 0 6.17394 1.46962 -0.70642 -13.6897 53.2714 -77.4952 
2 C 1 2 0 6.27842 0.730038 0.417143 15.8113 -57.0245 61.7697 
3 C 1 2 0 7.7194 0.232678 0.647476 -4.69165 21.2378 45.0805 
4 C 1 1 0 8.35123 -0.598355 -0.396236 2.57008 -17.4846 -29.355 
ITEM: TIMESTEP
2720
ITEM: NUMBER OF ATOMS
4
ITEM: BOX BOUNDS pp pp pp
0 59
0 59
0 59
ITEM: ATOMS id element mol type q xu yu zu fx fy fz 
1 C 1 1 0 6.15885 1.61499 -0.796171 -2.16446 -58.8129 51.6485 
2 C 1 2 0 6.38694 0.422778 0.387234 -28.5466 112.588 -17.7464 
3 C 1 2 0 7.83274 0.391845 0.767754 -27.2716 -62.8732 -57.9927 
4 C 1 1 0 8.15933 -0.605563 -0.390794 57.9827 9.09786 24.0907 
ITEM: TIMESTEP
2760
ITEM: NUMBER OF ATOMS
4
ITEM: BOX BOUNDS pp pp pp
0 59
0 59
0 59
ITEM: ATOMS id element mol type q xu yu zu fx fy fz 
1 C 1 1 0 6.0952 1.53526 -0.739009 -13.2171 28.9999 -40.3287 
2 C 1 2 0 6.2627 0.786866 0.477242 11.2888 -49.2668 -8.49162 
3 C 1 2 0 7.68821 0.200466 0.584067 33.8811 28.7958 86.8635 
4 C 1 1 0 8.47374 -0.686961 -0.360558 -31.9529 -8.52889 -38.0432 
ITEM: TIMESTEP
2800
ITEM: NUMBER OF ATOMS
4
ITEM: BOX BOUNDS pp pp pp
0 59
0 59
0 59
ITEM: ATOMS id element mol type q xu yu zu fx fy fz 
1 C 1 1 0 5.96369 1.63248 -0.872729 33.9571 -12.7606 8.77614 
2 C 1 2 0 6.26637 0.820554 0.449725 40.9016 -40.2922 39.7058 
3 C 1 2 0 7.7893 0.0809192 0.850272 -45.4339 23.2854 -103.961 
4 C 1 1 0 8.50751 -0.704077 -0.449524 -29.4249 29.7674 55.4787 
ITEM: TIMESTEP
2840
ITEM: NUMBER OF ATOMS
4
ITEM: BOX BOUNDS pp pp pp
0 59
0 59
0 59
ITEM: ATOMS id element mol type q xu yu zu fx fy fz 
1 C 1 1 0 6.13953 1.56504 -0.806495 8.7393 -25.1694 30.1912 
2 C 1 2 0 6.40274 0.578085 0.452046 -84.5339 43.6685 -39.6495 
3 C 1 2 0 7.72625 0.237718 0.657186 44.9839 25.8024 66.5837 
4 C 1 1 0 8.26326 -0.556713 -0.337783 30.8107 -44.3015 -57.1255 
ITEM: TIMESTEP
2880
ITEM: NUMBER OF ATOMS
4
ITEM: BOX BOUNDS pp pp pp
0 59
0 59
0 59
ITEM: ATOMS id element mol type q xu yu zu fx fy fz 
1 C 1 1 0 6.34903 1.40121 -0.6854 -58.7214 40.1957 -60.1972 
2 C 1 2 0 6.1691 0.595438 0.458356 84.3538 4.33892 26.8872 
3 C 1 2 0 7.72158 0.445257 0.66612 -24.1452 -80.599 -7.53519 
4 C 1 1 0 8.2761 -0.602699 -0.473099 -1.48725 36.0643 40.8453 
ITEM: TIMESTEP
2920
ITEM: NUMBER OF ATOMS
4
ITEM: BOX BOUNDS pp pp pp
0 59
0 59
0 59
ITEM: ATOMS id element mol type q xu yu zu fx fy fz 
1 C 1 1 0 6.07633 1.49474 -0.928713 38.5606 -25.6427 25.7735 
2 C 1 2 0 6.4105 0.792138 0.496612 -43.4674 13.387 25.1712 
3 C 1 2 0 7.70957 -0.0103212 0.851643 -15.2556 28.7217 -43.8441 
4 C 1 1 0 8.33479 -0.454698 -0.438563 20.1624 -16.4659 -7.10059 
ITEM: TIMESTEP
2960
ITEM: NUMBER OF ATOMS
4
ITEM: BOX BOUNDS pp pp pp
0 59
0 59
0 59
ITEM: ATOMS id element mol type q xu yu zu fx fy fz 
1 C 1 1 0 6.02814 1.37609 -0.929567 8.92837 -10.4802 57.6522 
2 C 1 2 0 6.44287 1.02587 0.637697 13.2931 6.14135 -89.5132 
3 C 1 2 0 7.53688 -0.10348 0.714462 -7.23075 -20.8214 41.3988 
4 C 1 1 0 8.51389 -0.4672 -0.441351 -14.9907 25.1603 -9.53787 
ITEM: TIMESTEP
3000
ITEM: NUMBER OF ATOMS
4
ITEM: BOX BOUNDS pp pp pp
0 59
0 59
0 59
ITEM: ATOMS id element mol type q xu yu zu fx fy fz 
1 C 1 1 0 6.02545 1.19435 -0.71306 -47.9246 41.7241 -65.1106 
2 C 1 2 0 6.72326 1.2219 0.477025 16.4918 -79.9207 48.5771 
3 C 1 2 0 7.22038 -0.28905 0.540494 53.6717 65.1977 -2.32677 
4 C 1 1 0 8.55027 -0.295217 -0.345653 -22.2388 -27.0012 18.8603 
ITEM: TIMESTEP
3040
ITEM: NUMBER OF ATOMS
4
ITEM: BOX BOUNDS pp pp pp
0 59
0 59
0 59
ITEM: ATOMS id element mol type q xu yu zu fx fy fz 
1 C 1 1 0 5.80735 1.35876 -0.797147 28.098 -26.598 20.6697 
2 C 1 2 0 6.84216 1.01459 0.398509 -66.092 100.475 3.96225 
3 C 1 2 0 7.36153 -0.254106 0.55976 -24.4238 -47.6994 10.6718 
4 C 1 1 0 8.52576 -0.298815 -0.206287 62.4177 -26.1777 -35.3037 
ITEM: TIMESTEP
3080
ITEM: NUMBER OF ATOMS
4
ITEM: BOX BOUNDS pp pp pp
0 59
0 59
0 59