LAMMPS (15 May 2015)
units 		real
atom_style 	full

pair_style 	lj/cut 14.0 # Allows cutoff beyond rcut
pair_modify 	mix arithmetic tail yes

bond_style 	harmonic
angle_style 	harmonic
dihedral_style 	opls

read_data 	data.pdms18
  orthogonal box = (0 0 0) to (59 59 59)
  1 by 1 by 1 MPI processor grid
  reading atoms ...
  4 atoms
  scanning bonds ...
  1 = max bonds/atom
  scanning angles ...
  1 = max angles/atom
  scanning dihedrals ...
  1 = max dihedrals/atom
  reading bonds ...
  3 bonds
  reading angles ...
  2 angles
  reading dihedrals ...
  1 dihedrals
  2 = max # of 1-2 neighbors
  1 = max # of 1-3 neighbors
  2 = max # of 1-4 neighbors
  3 = max # of special neighbors
velocity	all create 2000.0 4928459 mom yes rot yes dist gaussian		# Only used for first dynamics run
reset_timestep	0								# Only used for first dynamics run

atom_modify     sort 0 0.0

dump 		dump_1 all custom 40 dump.lammpstrj id element mol type q xu yu zu fx fy fz
dump_modify     dump_1 sort id
dump_modify     dump_1 element C C

thermo		400
thermo_style	custom step time ke pe evdwl ecoul epair ebond eangle edihed emol elong etail etotal temp press density
thermo_modify	line one format float %20.5f


timestep 	0.5
fix 		1 all nvt temp 2000.0 2000.0 100.0
fix_modify	1 energy yes
run 		10000
Neighbor list info ...
  1 neighbor list requests
  update every 1 steps, delay 10 steps, check yes
  master list distance cutoff = 16
Memory usage per processor = 6.87148 Mbytes
Step Time KinEng PotEng E_vdwl E_coul E_pair E_bond E_angle E_dihed E_mol E_long E_tail TotEng Temp Press Density 
       0              0.00000             17.88486              0.54035             -0.00010              0.00000             -0.00010              0.00250              0.53796              0.00000              0.54045              0.00000             -0.00010             18.42521           2000.00000              3.74985              0.00047 
     400            200.00000             15.51358              2.95359             -0.00010              0.00000             -0.00010             17.28530              1.96389              4.43586             23.68505              0.00000             -0.00010             18.46717           1734.82808             -3.14331              0.00047 
     800            400.00000             26.32686             -7.88517             -0.00010              0.00000             -0.00010              0.09799              4.49529              2.00967              6.60295              0.00000             -0.00010             18.44169           2944.03870              5.88144              0.00047 
    1200            600.00000              6.05505             12.39782             -0.00010              0.00000             -0.00010              2.64165             14.51535              2.82974             19.98673              0.00000             -0.00010             18.45287            677.11494              8.18553              0.00047 
    1600            800.00000             34.39298            -15.94081             -0.00010              0.00000             -0.00010              6.39878              7.10748              0.30268             13.80894              0.00000             -0.00010             18.45217           3846.04453             -9.23652              0.00047 
    2000           1000.00000             13.27944              5.16806             -0.00010              0.00000             -0.00010              3.55339             11.78321              1.31461             16.65122              0.00000             -0.00010             18.44750           1484.99249             -6.25560              0.00047 
    2400           1200.00000              4.94323             13.51070             -0.00010              0.00000             -0.00010             12.11070              4.93673              1.44487             18.49230              0.00000             -0.00010             18.45393            552.78378            -31.01653              0.00047 
    2800           1400.00000             14.46988              3.98536             -0.00010              0.00000             -0.00010             15.18214              4.88933              1.97431             22.04578              0.00000             -0.00010             18.45524           1618.11495            -32.56061              0.00047 
    3200           1600.00000             16.51340              1.94520             -0.00010              0.00000             -0.00010             10.29707              8.40433              2.84823             21.54963              0.00000             -0.00010             18.45860           1846.63434             13.95664              0.00047 
    3600           1800.00000             10.19669              8.24664             -0.00010              0.00000             -0.00010              1.38317              4.94525              2.30074              8.62916              0.00000             -0.00010             18.44332           1140.25937             11.60995              0.00047 
    4000           2000.00000             26.74884             -8.29703             -0.00010              0.00000             -0.00010              2.26228             11.16247              1.54062             14.96538              0.00000             -0.00010             18.45181           2991.22729             10.70851              0.00047 
    4400           2200.00000             19.07155             -0.62559             -0.00010              0.00000             -0.00010              8.87008              7.17479              3.50914             19.55402              0.00000             -0.00010             18.44596           2132.70325              9.12612              0.00047 
    4800           2400.00000             13.02465              5.41941             -0.00010              0.00000             -0.00010             11.93450              3.06190              1.53385             16.53026              0.00000             -0.00010             18.44406           1456.49990            -11.62420              0.00047 
    5200           2600.00000             12.67146              5.76723             -0.00010              0.00000             -0.00010              1.73058              7.06690              1.77405             10.57153              0.00000             -0.00010             18.43869           1417.00392             -7.52888              0.00047 
    5600           2800.00000             34.65180            -16.21176             -0.00010              0.00000             -0.00010              6.06335              5.83889              2.31274             14.21499              0.00000             -0.00010             18.44003           3874.98653             23.25085              0.00047 
    6000           3000.00000             13.80770              4.64583             -0.00010              0.00000             -0.00010              0.28018             14.65023              1.27368             16.20408              0.00000             -0.00010             18.45352           1544.06543             -1.53542              0.00047 
    6400           3200.00000             10.38630              8.05057             -0.00010              0.00000             -0.00010              2.42118              1.81197              1.26412              5.49728              0.00000             -0.00010             18.43687           1161.46273             -3.46527              0.00047 
    6800           3400.00000              5.55138             12.89988             -0.00010              0.00000             -0.00010             11.86145              5.68683              1.42152             18.96981              0.00000             -0.00010             18.45126            620.79074             -1.86910              0.00047 
    7200           3600.00000             18.94662             -0.48291             -0.00010              0.00000             -0.00010              1.41679             24.28797              2.07586             27.78061              0.00000             -0.00010             18.46371           2118.73314              2.90966              0.00047 
    7600           3800.00000             11.33571              7.11674             -0.00010              0.00000             -0.00010              9.18847              0.94719              1.03224             11.16790              0.00000             -0.00010             18.45244           1267.63140            -19.56755              0.00047 
    8000           4000.00000             16.70370              1.75344             -0.00010              0.00000             -0.00010              6.12937             12.63120              3.72472             22.48529              0.00000             -0.00010             18.45715           1867.91544              8.15143              0.00047 
    8400           4200.00000             19.83364             -1.35984             -0.00010              0.00000             -0.00010             16.29494              5.38175              1.57122             23.24792              0.00000             -0.00010             18.47380           2217.92526             -0.86108              0.00047 
    8800           4400.00000              6.51161             11.93392             -0.00010              0.00000             -0.00010             10.77324              2.71939              3.72528             17.21791              0.00000             -0.00010             18.44553            728.17019            -14.80000              0.00047 
    9200           4600.00000              4.51702             13.97430             -0.00010              0.00000             -0.00010             15.11342             32.61608              3.68673             51.41623              0.00000             -0.00010             18.49132            505.12255            -17.90488              0.00047 
    9600           4800.00000             21.83443             -3.39377             -0.00010              0.00000             -0.00010             11.67921              0.11094              2.25486             14.04502              0.00000             -0.00010             18.44066           2441.66580             -6.41480              0.00047 
   10000           5000.00000             15.61697              2.82110             -0.00010              0.00000             -0.00010              7.83156              0.52280              3.66607             12.02043              0.00000             -0.00010             18.43807           1746.39025             -2.15451              0.00047 
Loop time of 0.0283301 on 1 procs for 10000 steps with 4 atoms

Pair  time (%) = 0.000636816 (2.24784)
Bond  time (%) = 0.00488591 (17.2464)
Neigh time (%) = 7.27177e-05 (0.25668)
Comm  time (%) = 0.00288939 (10.199)
Outpt time (%) = 0.00947189 (33.434)
Other time (%) = 0.0103734 (36.616)

Nlocal:    4 ave 4 max 4 min
Histogram: 1 0 0 0 0 0 0 0 0 0
Nghost:    28 ave 28 max 28 min
Histogram: 1 0 0 0 0 0 0 0 0 0
Neighs:    0 ave 0 max 0 min
Histogram: 1 0 0 0 0 0 0 0 0 0

Total # of neighbors = 0
Ave neighs/atom = 0
Ave special neighs/atom = 3
Neighbor list builds = 12
Dangerous builds = 0
